
The number of threads in each node for OpenMP parallelization is 1.


*******************************************************
*******************************************************
 Welcome to OpenMX   Ver. 3.8                           
 Copyright (C), 2002-2014, T. Ozaki                    
 OpenMX comes with ABSOLUTELY NO WARRANTY.             
 This is free software, and you are welcome to         
 redistribute it under the constitution of the GNU-GPL.
*******************************************************
*******************************************************



<Input_std>  Your input file was normally read.
<Input_std>  The system includes 2 species and 2 atoms.

*******************************************************
                     PAO and VPS                       
*******************************************************

<SetPara_DFT>  PAOs of species Al were normally found.
<SetPara_DFT>  PAOs of species O were normally found.
<SetPara_DFT>  VPSs of species Al were normally found.
               Al_PBE13.vps is j-dependent.
               In case of scf.SpinOrbit.Coupling=off,
               j-dependent pseudo potentials are averaged by j-degeneracy,
               which corresponds to a scalar relativistic treatment.
<SetPara_DFT>  VPSs of species O were normally found.
               O_PBE13.vps is j-dependent.
               In case of scf.SpinOrbit.Coupling=off,
               j-dependent pseudo potentials are averaged by j-degeneracy,
               which corresponds to a scalar relativistic treatment.

*******************************************************
     Fourier transform of PAO and projectors of VNL    
*******************************************************

<FT_PAO>          Fourier transform of pseudo atomic orbitals
<FT_NLP>          Fourier transform of non-local projectors
<FT_ProExpn_VNA>  Fourier transform of VNA separable projectors
<FT_VNA>          Fourier transform of VNA potentials
<FT_ProductPAO>   Fourier transform of product of PAOs

*******************************************************
  Allocation of atoms to proccesors at MD_iter=    1     
*******************************************************

 proc =   0  # of atoms=   2  estimated weight=         2.00000




*******************************************************
        Analysis of neighbors and setting of grids        
*******************************************************

TFNAN=     100   Average FNAN=  50.00000
TSNAN=       0   Average SNAN=   0.00000
<truncation> CpyCell= 1 ct_AN=   1 FNAN SNAN  51   0
<truncation> CpyCell= 1 ct_AN=   2 FNAN SNAN  49   0
TFNAN=     252   Average FNAN= 126.00000
TSNAN=       0   Average SNAN=   0.00000
<truncation> CpyCell= 2 ct_AN=   1 FNAN SNAN 151   0
<truncation> CpyCell= 2 ct_AN=   2 FNAN SNAN 101   0
TFNAN=     312   Average FNAN= 156.00000
TSNAN=       0   Average SNAN=   0.00000
<truncation> CpyCell= 3 ct_AN=   1 FNAN SNAN 202   0
<truncation> CpyCell= 3 ct_AN=   2 FNAN SNAN 110   0
TFNAN=     312   Average FNAN= 156.00000
TSNAN=       0   Average SNAN=   0.00000
<truncation> CpyCell= 4 ct_AN=   1 FNAN SNAN 202   0
<truncation> CpyCell= 4 ct_AN=   2 FNAN SNAN 110   0
TFNAN=     312   Average FNAN= 156.00000
TSNAN=       0   Average SNAN=   0.00000
<truncation> CpyCell= 4 ct_AN=   1 FNAN SNAN 202   0
<truncation> CpyCell= 4 ct_AN=   2 FNAN SNAN 110   0
<Check_System> The system is bulk.
lattice vectors (bohr)
A  =  0.000000000000,  4.251883474303,  4.251883474303
B  =  4.251883474303,  0.000000000000,  4.251883474303
C  =  4.251883474303,  4.251883474303,  0.000000000000
reciprocal lattice vectors (bohr^-1)
RA = -0.738870825736,  0.738870825736,  0.738870825736
RB =  0.738870825736, -0.738870825736,  0.738870825736
RC =  0.738870825736,  0.738870825736, -0.738870825736
Grid_Origin -1.913347563436 -4.039289300587 -4.039289300587
Cell_Volume =    153.735462001529 (Bohr^3)
GridVol     =      0.019216932750 (Bohr^3)
Grid_Origin -1.913347563436 -4.039289300587 -4.039289300587
Cell_Volume =    153.735462001529 (Bohr^3)
GridVol     =      0.019216932750 (Bohr^3)
<UCell_Box> Info. of cutoff energy and num. of grids
lattice vectors (bohr)
A  =  0.000000000000,  4.251883474303,  4.251883474303
B  =  4.251883474303,  0.000000000000,  4.251883474303
C  =  4.251883474303,  4.251883474303,  0.000000000000
reciprocal lattice vectors (bohr^-1)
RA = -0.738870825736,  0.738870825736,  0.738870825736
RB =  0.738870825736, -0.738870825736,  0.738870825736
RC =  0.738870825736,  0.738870825736, -0.738870825736
Required cutoff energy (Ryd) for 3D-grids = 150.0000
    Used cutoff energy (Ryd) for 3D-grids = 163.7790, 163.7790, 163.7790
Num. of grids of a-, b-, and c-axes = 20, 20, 20
Grid_Origin -1.913347563436 -4.039289300587 -4.039289300587
Cell_Volume =    153.735462001529 (Bohr^3)
GridVol     =      0.019216932750 (Bohr^3)
Cell vectors (bohr) of the grid cell (gtv)
  gtv_a =  0.000000000000,  0.212594173715,  0.212594173715
  gtv_b =  0.212594173715,  0.000000000000,  0.212594173715
  gtv_c =  0.212594173715,  0.212594173715,  0.000000000000
  |gtv_a| =  0.300653563749
  |gtv_b| =  0.300653563749
  |gtv_c| =  0.300653563749
Num. of grids overlapping with atom    1 = 111370
Num. of grids overlapping with atom    2 = 46804

*******************************************************
             SCF calculation at MD = 1                
*******************************************************

<MD= 1>  Calculation of the overlap matrix
<MD= 1>  Calculation of the nonlocal matrix
<MD= 1>  Calculation of the VNA projector matrix

******************* MD= 1  SCF= 1 *******************
<Restart>  Found restart files
<Poisson>  Poisson's equation using FFT...
<Band>  Solving the eigenvalue problem...
 KGrids1:  -0.25000   0.25000 
 KGrids2:  -0.25000   0.25000 
 KGrids3:  -0.25000   0.25000 
<Band_DFT>  Eigen, time=0.107960
<Band_DFT>  DM, time=0.174142
    1   Al  MulP   1.5369  1.5369 sum   3.0738
    2    O  MulP   2.9631  2.9631 sum   5.9262
 Sum of MulP: up   =     4.50000 down          =     4.50000
              total=     9.00000 ideal(neutral)=     9.00000
<DFT>  Total Spin Moment (muB) =  0.000000000000
<DFT>  Mixing_weight= 0.300000000000
<DFT>  Uele   =   -4.205441119859  dUele     =   1.000000000000
<DFT>  NormRD =    1.000000000000  Criterion =   0.000001000000

******************* MD= 1  SCF= 2 *******************
<Poisson>  Poisson's equation using FFT...
<Set_Hamiltonian>  Hamiltonian matrix for VNA+dVH+Vxc...
<Band>  Solving the eigenvalue problem...
 KGrids1:  -0.25000   0.25000 
 KGrids2:  -0.25000   0.25000 
 KGrids3:  -0.25000   0.25000 
<Band_DFT>  Eigen, time=0.052406
<Band_DFT>  DM, time=0.100255
    1   Al  MulP   0.9215  0.9215 sum   1.8431
    2    O  MulP   3.5785  3.5785 sum   7.1569
 Sum of MulP: up   =     4.50000 down          =     4.50000
              total=     9.00000 ideal(neutral)=     9.00000
<DFT>  Total Spin Moment (muB) =  0.000000000000
<DFT>  Mixing_weight= 0.031709485702
<DFT>  Uele   =   -5.347825651683  dUele     =   1.142384531824
<DFT>  NormRD =    2.908761142111  Criterion =   0.000001000000

******************* MD= 1  SCF= 3 *******************
<Poisson>  Poisson's equation using FFT...
<Set_Hamiltonian>  Hamiltonian matrix for VNA+dVH+Vxc...
<Band>  Solving the eigenvalue problem...
 KGrids1:  -0.25000   0.25000 
 KGrids2:  -0.25000   0.25000 
 KGrids3:  -0.25000   0.25000 
<Band_DFT>  Eigen, time=0.051556
<Band_DFT>  DM, time=0.099908
    1   Al  MulP   0.9596  0.9596 sum   1.9192
    2    O  MulP   3.5404  3.5404 sum   7.0808
 Sum of MulP: up   =     4.50000 down          =     4.50000
              total=     9.00000 ideal(neutral)=     9.00000
<DFT>  Total Spin Moment (muB) =  0.000000000000
<DFT>  Mixing_weight= 0.178898846380
<DFT>  Uele   =   -5.253517518540  dUele     =   0.094308133143
<DFT>  NormRD =    2.638411305965  Criterion =   0.000001000000

******************* MD= 1  SCF= 4 *******************
<Poisson>  Poisson's equation using FFT...
<Set_Hamiltonian>  Hamiltonian matrix for VNA+dVH+Vxc...
<Band>  Solving the eigenvalue problem...
 KGrids1:  -0.25000   0.25000 
 KGrids2:  -0.25000   0.25000 
 KGrids3:  -0.25000   0.25000 
<Band_DFT>  Eigen, time=0.051480
<Band_DFT>  DM, time=0.099939
    1   Al  MulP   1.1787  1.1787 sum   2.3573
    2    O  MulP   3.3213  3.3213 sum   6.6427
 Sum of MulP: up   =     4.50000 down          =     4.50000
              total=     9.00000 ideal(neutral)=     9.00000
<DFT>  Total Spin Moment (muB) =  0.000000000000
<DFT>  Mixing_weight= 0.221945397261
<DFT>  Uele   =   -4.794270040495  dUele     =   0.459247478045
<DFT>  NormRD =    1.161953122666  Criterion =   0.000001000000

******************* MD= 1  SCF= 5 *******************
<Poisson>  Poisson's equation using FFT...
<Set_Hamiltonian>  Hamiltonian matrix for VNA+dVH+Vxc...
<Band>  Solving the eigenvalue problem...
 KGrids1:  -0.25000   0.25000 
 KGrids2:  -0.25000   0.25000 
 KGrids3:  -0.25000   0.25000 
<Band_DFT>  Eigen, time=0.051653
<Band_DFT>  DM, time=0.099936
    1   Al  MulP   1.3075  1.3075 sum   2.6150
    2    O  MulP   3.1925  3.1925 sum   6.3850
 Sum of MulP: up   =     4.50000 down          =     4.50000
              total=     9.00000 ideal(neutral)=     9.00000
<DFT>  Total Spin Moment (muB) =  0.000000000000
<DFT>  Mixing_weight= 0.243062155012
<DFT>  Uele   =   -4.571415004528  dUele     =   0.222855035967
<DFT>  NormRD =    0.342486576459  Criterion =   0.000001000000

******************* MD= 1  SCF= 6 *******************
<Poisson>  Poisson's equation using FFT...
<Set_Hamiltonian>  Hamiltonian matrix for VNA+dVH+Vxc...
<Band>  Solving the eigenvalue problem...
 KGrids1:  -0.25000   0.25000 
 KGrids2:  -0.25000   0.25000 
 KGrids3:  -0.25000   0.25000 
<Band_DFT>  Eigen, time=0.051824
<Band_DFT>  DM, time=0.100500
    1   Al  MulP   1.3425  1.3425 sum   2.6851
    2    O  MulP   3.1575  3.1575 sum   6.3149
 Sum of MulP: up   =     4.50000 down          =     4.50000
              total=     9.00000 ideal(neutral)=     9.00000
<DFT>  Total Spin Moment (muB) =  0.000000000000
<DFT>  Mixing_weight= 0.243062155012
<DFT>  Uele   =   -4.515180223680  dUele     =   0.056234780848
<DFT>  NormRD =    0.156296158228  Criterion =   0.000001000000

******************* MD= 1  SCF= 7 *******************
<Poisson>  Poisson's equation using FFT...
<Set_Hamiltonian>  Hamiltonian matrix for VNA+dVH+Vxc...
<Band>  Solving the eigenvalue problem...
 KGrids1:  -0.25000   0.25000 
 KGrids2:  -0.25000   0.25000 
 KGrids3:  -0.25000   0.25000 
<Band_DFT>  Eigen, time=0.052282
<Band_DFT>  DM, time=0.100048
    1   Al  MulP   1.3481  1.3481 sum   2.6962
    2    O  MulP   3.1519  3.1519 sum   6.3038
 Sum of MulP: up   =     4.50000 down          =     4.50000
              total=     9.00000 ideal(neutral)=     9.00000
<DFT>  Total Spin Moment (muB) =  0.000000000000
<DFT>  Mixing_weight= 0.243062155012
<DFT>  Uele   =   -4.506488519660  dUele     =   0.008691704020
<DFT>  NormRD =    0.113847431782  Criterion =   0.000001000000

******************* MD= 1  SCF= 8 *******************
<Poisson>  Poisson's equation using FFT...
<Set_Hamiltonian>  Hamiltonian matrix for VNA+dVH+Vxc...
<Band>  Solving the eigenvalue problem...
 KGrids1:  -0.25000   0.25000 
 KGrids2:  -0.25000   0.25000 
 KGrids3:  -0.25000   0.25000 
<Band_DFT>  Eigen, time=0.051639
<Band_DFT>  DM, time=0.099924
    1   Al  MulP   1.3419  1.3419 sum   2.6838
    2    O  MulP   3.1581  3.1581 sum   6.3162
 Sum of MulP: up   =     4.50000 down          =     4.50000
              total=     9.00000 ideal(neutral)=     9.00000
<DFT>  Total Spin Moment (muB) =  0.000000000000
<DFT>  Mixing_weight= 0.243062155012
<DFT>  Uele   =   -4.516463957613  dUele     =   0.009975437954
<DFT>  NormRD =    0.054675249813  Criterion =   0.000001000000

******************* MD= 1  SCF= 9 *******************
<Poisson>  Poisson's equation using FFT...
<Set_Hamiltonian>  Hamiltonian matrix for VNA+dVH+Vxc...
<Band>  Solving the eigenvalue problem...
 KGrids1:  -0.25000   0.25000 
 KGrids2:  -0.25000   0.25000 
 KGrids3:  -0.25000   0.25000 
<Band_DFT>  Eigen, time=0.051520
<Band_DFT>  DM, time=0.099935
    1   Al  MulP   1.3517  1.3517 sum   2.7034
    2    O  MulP   3.1483  3.1483 sum   6.2966
 Sum of MulP: up   =     4.50000 down          =     4.50000
              total=     9.00000 ideal(neutral)=     9.00000
<DFT>  Total Spin Moment (muB) =  0.000000000000
<DFT>  Mixing_weight= 0.243062155012
<DFT>  Uele   =   -4.500973425906  dUele     =   0.015490531707
<DFT>  NormRD =    0.012962654009  Criterion =   0.000001000000

******************* MD= 1  SCF=10 *******************
<Poisson>  Poisson's equation using FFT...
<Set_Hamiltonian>  Hamiltonian matrix for VNA+dVH+Vxc...
<Band>  Solving the eigenvalue problem...
 KGrids1:  -0.25000   0.25000 
 KGrids2:  -0.25000   0.25000 
 KGrids3:  -0.25000   0.25000 
<Band_DFT>  Eigen, time=0.051864
<Band_DFT>  DM, time=0.109140
    1   Al  MulP   1.3501  1.3501 sum   2.7002
    2    O  MulP   3.1499  3.1499 sum   6.2998
 Sum of MulP: up   =     4.50000 down          =     4.50000
              total=     9.00000 ideal(neutral)=     9.00000
<DFT>  Total Spin Moment (muB) =  0.000000000000
<DFT>  Mixing_weight= 0.243062155012
<DFT>  Uele   =   -4.503547481416  dUele     =   0.002574055510
<DFT>  NormRD =    0.000146698567  Criterion =   0.000001000000

******************* MD= 1  SCF=11 *******************
<Poisson>  Poisson's equation using FFT...
<Set_Hamiltonian>  Hamiltonian matrix for VNA+dVH+Vxc...
<Band>  Solving the eigenvalue problem...
 KGrids1:  -0.25000   0.25000 
 KGrids2:  -0.25000   0.25000 
 KGrids3:  -0.25000   0.25000 
<Band_DFT>  Eigen, time=0.051496
<Band_DFT>  DM, time=0.099886
    1   Al  MulP   1.3501  1.3501 sum   2.7001
    2    O  MulP   3.1499  3.1499 sum   6.2999
 Sum of MulP: up   =     4.50000 down          =     4.50000
              total=     9.00000 ideal(neutral)=     9.00000
<DFT>  Total Spin Moment (muB) =  0.000000000000
<DFT>  Mixing_weight= 0.243062155012
<DFT>  Uele   =   -4.503568978819  dUele     =   0.000021497402
<DFT>  NormRD =    0.000018971024  Criterion =   0.000001000000

******************* MD= 1  SCF=12 *******************
<Poisson>  Poisson's equation using FFT...
<Set_Hamiltonian>  Hamiltonian matrix for VNA+dVH+Vxc...
<Band>  Solving the eigenvalue problem...
 KGrids1:  -0.25000   0.25000 
 KGrids2:  -0.25000   0.25000 
 KGrids3:  -0.25000   0.25000 
<Band_DFT>  Eigen, time=0.051284
<Band_DFT>  DM, time=0.099825
    1   Al  MulP   1.3501  1.3501 sum   2.7001
    2    O  MulP   3.1499  3.1499 sum   6.2999
 Sum of MulP: up   =     4.50000 down          =     4.50000
              total=     9.00000 ideal(neutral)=     9.00000
<DFT>  Total Spin Moment (muB) =  0.000000000000
<DFT>  Mixing_weight= 0.243062155012
<DFT>  Uele   =   -4.503574663921  dUele     =   0.000005685103
<DFT>  NormRD =    0.000007939861  Criterion =   0.000001000000

******************* MD= 1  SCF=13 *******************
<Poisson>  Poisson's equation using FFT...
<Set_Hamiltonian>  Hamiltonian matrix for VNA+dVH+Vxc...
<Band>  Solving the eigenvalue problem...
 KGrids1:  -0.25000   0.25000 
 KGrids2:  -0.25000   0.25000 
 KGrids3:  -0.25000   0.25000 
<Band_DFT>  Eigen, time=0.054374
<Band_DFT>  DM, time=0.099889
    1   Al  MulP   1.3501  1.3501 sum   2.7001
    2    O  MulP   3.1499  3.1499 sum   6.2999
 Sum of MulP: up   =     4.50000 down          =     4.50000
              total=     9.00000 ideal(neutral)=     9.00000
<DFT>  Total Spin Moment (muB) =  0.000000000000
<DFT>  Mixing_weight= 0.243062155012
<DFT>  Uele   =   -4.503572206449  dUele     =   0.000002457472
<DFT>  NormRD =    0.000002457891  Criterion =   0.000001000000

******************* MD= 1  SCF=14 *******************
<Poisson>  Poisson's equation using FFT...
<Set_Hamiltonian>  Hamiltonian matrix for VNA+dVH+Vxc...
<Band>  Solving the eigenvalue problem...
 KGrids1:  -0.25000   0.25000 
 KGrids2:  -0.25000   0.25000 
 KGrids3:  -0.25000   0.25000 
<Band_DFT>  Eigen, time=0.051642
<Band_DFT>  DM, time=0.099917
    1   Al  MulP   1.3501  1.3501 sum   2.7001
    2    O  MulP   3.1499  3.1499 sum   6.2999
 Sum of MulP: up   =     4.50000 down          =     4.50000
              total=     9.00000 ideal(neutral)=     9.00000
<DFT>  Total Spin Moment (muB) =  0.000000000000
<DFT>  Mixing_weight= 0.243062155012
<DFT>  Uele   =   -4.503572820719  dUele     =   0.000000614269
<DFT>  NormRD =    0.000000124324  Criterion =   0.000001000000
<MD= 1>  Force calculation
  Force calculation #1
  Force calculation #2
  Force calculation #3
  Force calculation #4
  Force calculation #5
<MD= 1>  Total Energy
  Force calculation #6
  Force calculation #7

*******************************************************
                  Dipole moment (Debye)                 
*******************************************************

 Absolute D        9.37991152

                      Dx                Dy                Dz
 Total             -9.37991152        0.00006851        0.00001334
 Core              64.84329178        0.00000000        0.00000000
 Electron         -74.22320330        0.00006851        0.00001334
 Back ground       -0.00000000        0.00000000        0.00000000

*******************************************************
                Total Energy (Hartree) at MD = 1        
*******************************************************

  Uele  =      -4.503572820719

  Ukin  =      12.447270234337
  UH0   =    -288.230543950075
  UH1   =       0.022831075529
  Una   =     -15.508756855618
  Unl   =       3.662395878257
  Uxc0  =      -2.492567778987
  Uxc1  =      -2.492567778987
  Ucore =     273.895755080991
  Uhub  =       0.000000000000
  Ucs   =       0.000000000000
  Uzs   =       0.000000000000
  Uzo   =       0.000000000000
  Uef   =       0.000000000000
  UvdW  =       0.000000000000
  Utot  =     -18.696184094554

  Note:

  Utot = Ukin+UH0+UH1+Una+Unl+Uxc0+Uxc1+Ucore+Uhub+Ucs+Uzs+Uzo+Uef+UvdW

  Uele:   band energy
  Ukin:   kinetic energy
  UH0:    electric part of screened Coulomb energy
  UH1:    difference electron-electron Coulomb energy
  Una:    neutral atom potential energy
  Unl:    non-local potential energy
  Uxc0:   exchange-correlation energy for alpha spin
  Uxc1:   exchange-correlation energy for beta spin
  Ucore:  core-core Coulomb energy
  Uhub:   LDA+U energy
  Ucs:    constraint energy for spin orientation
  Uzs:    Zeeman term for spin magnetic moment
  Uzo:    Zeeman term for orbital magnetic moment
  Uef:    electric energy by electric field
  UvdW:   semi-empirical vdW energy 

  (see also PRB 72, 045121(2005) for the energy contributions)


*******************************************************
           Computational times (s) at MD = 1            
*******************************************************

  DFT in total      =  712.84294

  Set_OLP_Kin       =   11.43305
  Set_Nonlocal      =   10.27386
  Set_ProExpn_VNA   =  106.14545
  Set_Hamiltonian   =   18.16215
  Poisson           =    0.01276
  diagonalization   =    2.32374
  Mixing_DM         =    0.27232
  Force             =  544.00523
  Total_Energy      =    7.15008
  Set_Aden_Grid     =    0.03112
  Set_Orbitals_Grid =    0.06581
  Set_Density_Grid  =   12.94573
  RestartFileDFT    =    0.00510
  Mulliken_Charge   =    0.01384
  FFT(2D)_Density   =    0.00000

*******************************************************
             MD or geometry opt. at MD = 1              
*******************************************************


outputting data on grids to files...


***********************************************************
***********************************************************
               Computational Time (second)                 
***********************************************************
***********************************************************

                               Min_ID   Min_Time       Max_ID   Max_Time
   Total Computational Time =     0      716.094          0      716.094
   readfile                 =     0        0.709          0        0.709
   truncation               =     0        0.000          0        0.000
   MD_pac                   =     0        0.000          0        0.000
   OutData                  =     0        0.144          0        0.144
   DFT                      =     0      712.843          0      712.843

*** In DFT ***

   Set_OLP_Kin              =     0       11.433          0       11.433
   Set_Nonlocal             =     0       10.274          0       10.274
   Set_ProExpn_VNA          =     0      106.145          0      106.145
   Set_Hamiltonian          =     0       18.162          0       18.162
   Poisson                  =     0        0.013          0        0.013
   Diagonalization          =     0        2.324          0        2.324
   Mixing_DM                =     0        0.272          0        0.272
   Force                    =     0      544.005          0      544.005
   Total_Energy             =     0        7.150          0        7.150
   Set_Aden_Grid            =     0        0.031          0        0.031
   Set_Orbitals_Grid        =     0        0.066          0        0.066
   Set_Density_Grid         =     0       12.946          0       12.946
   RestartFileDFT           =     0        0.005          0        0.005
   Mulliken_Charge          =     0        0.014          0        0.014
   FFT(2D)_Density          =     0        0.000          0        0.000
   Others                   =     0        0.003          0        0.003

The calculation was normally finished.
