
The number of threads in each node for OpenMP parallelization is 1.


*******************************************************
*******************************************************
 Welcome to OpenMX   Ver. 3.8                           
 Copyright (C), 2002-2014, T. Ozaki                    
 OpenMX comes with ABSOLUTELY NO WARRANTY.             
 This is free software, and you are welcome to         
 redistribute it under the constitution of the GNU-GPL.
*******************************************************
*******************************************************



<Input_std>  Your input file was normally read.
<Input_std>  The system includes 2 species and 5 atoms.

*******************************************************
                     PAO and VPS                       
*******************************************************

<SetPara_DFT>  PAOs of species C were normally found.
<SetPara_DFT>  PAOs of species H were normally found.
<SetPara_DFT>  VPSs of species C were normally found.
               C_PBE13.vps is j-dependent.
               In case of scf.SpinOrbit.Coupling=off,
               j-dependent pseudo potentials are averaged by j-degeneracy,
               which corresponds to a scalar relativistic treatment.
<SetPara_DFT>  VPSs of species H were normally found.
               H_PBE13.vps is j-dependent.
               In case of scf.SpinOrbit.Coupling=off,
               j-dependent pseudo potentials are averaged by j-degeneracy,
               which corresponds to a scalar relativistic treatment.

*******************************************************
     Fourier transform of PAO and projectors of VNL    
*******************************************************

<FT_PAO>          Fourier transform of pseudo atomic orbitals
<FT_NLP>          Fourier transform of non-local projectors
<FT_ProExpn_VNA>  Fourier transform of VNA separable projectors
<FT_VNA>          Fourier transform of VNA potentials
<FT_ProductPAO>   Fourier transform of product of PAOs

*******************************************************
  Allocation of atoms to proccesors at MD_iter=    1     
*******************************************************

 proc =   0  # of atoms=   1  estimated weight=         1.00000
 proc =   1  # of atoms=   1  estimated weight=         1.00000
 proc =   2  # of atoms=   1  estimated weight=         1.00000
 proc =   3  # of atoms=   1  estimated weight=         1.00000
 proc =   4  # of atoms=   1  estimated weight=         1.00000
 proc =   5  # of atoms=   0  estimated weight=         0.00000
 proc =   6  # of atoms=   0  estimated weight=         0.00000
 proc =   7  # of atoms=   0  estimated weight=         0.00000
 proc =   8  # of atoms=   0  estimated weight=         0.00000
 proc =   9  # of atoms=   0  estimated weight=         0.00000
 proc =  10  # of atoms=   0  estimated weight=         0.00000
 proc =  11  # of atoms=   0  estimated weight=         0.00000
 proc =  12  # of atoms=   0  estimated weight=         0.00000
 proc =  13  # of atoms=   0  estimated weight=         0.00000
 proc =  14  # of atoms=   0  estimated weight=         0.00000
 proc =  15  # of atoms=   0  estimated weight=         0.00000
 proc =  16  # of atoms=   0  estimated weight=         0.00000
 proc =  17  # of atoms=   0  estimated weight=         0.00000
 proc =  18  # of atoms=   0  estimated weight=         0.00000
 proc =  19  # of atoms=   0  estimated weight=         0.00000




*******************************************************
        Analysis of neighbors and setting of grids        
*******************************************************

TFNAN=      20   Average FNAN=   4.00000
TSNAN=       0   Average SNAN=   0.00000
<truncation> CpyCell= 1 ct_AN=   1 FNAN SNAN   4   0
<truncation> CpyCell= 1 ct_AN=   2 FNAN SNAN   4   0
<truncation> CpyCell= 1 ct_AN=   3 FNAN SNAN   4   0
<truncation> CpyCell= 1 ct_AN=   4 FNAN SNAN   4   0
<truncation> CpyCell= 1 ct_AN=   5 FNAN SNAN   4   0
TFNAN=      20   Average FNAN=   4.00000
TSNAN=       0   Average SNAN=   0.00000
<truncation> CpyCell= 2 ct_AN=   1 FNAN SNAN   4   0
<truncation> CpyCell= 2 ct_AN=   2 FNAN SNAN   4   0
<truncation> CpyCell= 2 ct_AN=   3 FNAN SNAN   4   0
<truncation> CpyCell= 2 ct_AN=   4 FNAN SNAN   4   0
<truncation> CpyCell= 2 ct_AN=   5 FNAN SNAN   4   0
TFNAN=      20   Average FNAN=   4.00000
TSNAN=       0   Average SNAN=   0.00000
<truncation> CpyCell= 2 ct_AN=   1 FNAN SNAN   4   0
<truncation> CpyCell= 2 ct_AN=   2 FNAN SNAN   4   0
<truncation> CpyCell= 2 ct_AN=   3 FNAN SNAN   4   0
<truncation> CpyCell= 2 ct_AN=   4 FNAN SNAN   4   0
<truncation> CpyCell= 2 ct_AN=   5 FNAN SNAN   4   0
<Check_System> The system is molecule.
lattice vectors (bohr)
A  = 18.798804537562,  0.000000000000,  0.000000000000
B  =  0.000000000000, 18.798804537562,  0.000000000000
C  =  0.000000000000,  0.000000000000, 18.897259885789
reciprocal lattice vectors (bohr^-1)
RA =  0.334233237790,  0.000000000000,  0.000000000000
RB =  0.000000000000,  0.334233237790,  0.000000000000
RC =  0.000000000000,  0.000000000000,  0.332491871581
Grid_Origin -9.358642991058 -9.358642991058 -9.320849605122
Cell_Volume =   6678.198140779284 (Bohr^3)
GridVol     =      0.005768878644 (Bohr^3)
Grid_Origin -9.358642991058 -9.358642991058 -9.320849605122
Cell_Volume =   6678.198140779284 (Bohr^3)
GridVol     =      0.005768878644 (Bohr^3)
<UCell_Box> Info. of cutoff energy and num. of grids
lattice vectors (bohr)
A  = 18.798804537562,  0.000000000000,  0.000000000000
B  =  0.000000000000, 18.798804537562,  0.000000000000
C  =  0.000000000000,  0.000000000000, 18.897259885789
reciprocal lattice vectors (bohr^-1)
RA =  0.334233237790,  0.000000000000,  0.000000000000
RB =  0.000000000000,  0.334233237790,  0.000000000000
RC =  0.000000000000,  0.000000000000,  0.332491871581
Required cutoff energy (Ryd) for 3D-grids = 300.0000
    Used cutoff energy (Ryd) for 3D-grids = 307.9058, 307.9058, 304.7058
Num. of grids of a-, b-, and c-axes = 105, 105, 105
Grid_Origin -9.358642991058 -9.358642991058 -9.320849605122
Cell_Volume =   6678.198140779284 (Bohr^3)
GridVol     =      0.005768878644 (Bohr^3)
Cell vectors (bohr) of the grid cell (gtv)
  gtv_a =  0.179036233691,  0.000000000000,  0.000000000000
  gtv_b =  0.000000000000,  0.179036233691,  0.000000000000
  gtv_c =  0.000000000000,  0.000000000000,  0.179973903674
  |gtv_a| =  0.179036233691
  |gtv_b| =  0.179036233691
  |gtv_c| =  0.179973903674
Num. of grids overlapping with atom    1 = 156841
Num. of grids overlapping with atom    2 = 156893
Num. of grids overlapping with atom    3 = 156827
Num. of grids overlapping with atom    4 = 156809
Num. of grids overlapping with atom    5 = 156809

*******************************************************
             SCF calculation at MD = 1                
*******************************************************

<MD= 1>  Calculation of the overlap matrix
<MD= 1>  Calculation of the nonlocal matrix
<MD= 1>  Calculation of the VNA projector matrix

******************* MD= 1  SCF= 1 *******************
<Restart>  Found restart files
<Poisson>  Poisson's equation using FFT...
<Band>  Solving the eigenvalue problem...
 KGrids1:  -0.37500  -0.12500   0.12500   0.37500 
 KGrids2:  -0.37500  -0.12500   0.12500   0.37500 
 KGrids3:  -0.37500  -0.12500   0.12500   0.37500 
<Band_DFT>  Eigen, time=0.328569
<Band_DFT>  DM, time=0.801786
    1    C  MulP   2.0519  2.0519 sum   4.1038
    2    H  MulP   0.4867  0.4867 sum   0.9735
    3    H  MulP   0.4870  0.4870 sum   0.9741
    4    H  MulP   0.4872  0.4872 sum   0.9743
    5    H  MulP   0.4872  0.4872 sum   0.9743
 Sum of MulP: up   =     4.00000 down          =     4.00000
              total=     8.00000 ideal(neutral)=     8.00000
<DFT>  Total Spin Moment (muB) =  0.000000000000
<DFT>  Mixing_weight= 0.300000000000
<DFT>  Uele   =   -3.329530104855  dUele     =   1.000000000000
<DFT>  NormRD =    1.000000000000  Criterion =   0.000001000000

******************* MD= 1  SCF= 2 *******************
<Poisson>  Poisson's equation using FFT...
<Set_Hamiltonian>  Hamiltonian matrix for VNA+dVH+Vxc...
<Band>  Solving the eigenvalue problem...
 KGrids1:  -0.37500  -0.12500   0.12500   0.37500 
 KGrids2:  -0.37500  -0.12500   0.12500   0.37500 
 KGrids3:  -0.37500  -0.12500   0.12500   0.37500 
<Band_DFT>  Eigen, time=0.320169
<Band_DFT>  DM, time=0.937563
    1    C  MulP   2.0512  2.0512 sum   4.1024
    2    H  MulP   0.4871  0.4871 sum   0.9742
    3    H  MulP   0.4871  0.4871 sum   0.9742
    4    H  MulP   0.4873  0.4873 sum   0.9746
    5    H  MulP   0.4873  0.4873 sum   0.9746
 Sum of MulP: up   =     4.00000 down          =     4.00000
              total=     8.00000 ideal(neutral)=     8.00000
<DFT>  Total Spin Moment (muB) =  0.000000000000
<DFT>  Mixing_weight= 0.300000153591
<DFT>  Uele   =   -3.328548660009  dUele     =   0.000981444846
<DFT>  NormRD =    0.000715520388  Criterion =   0.000001000000

******************* MD= 1  SCF= 3 *******************
<Poisson>  Poisson's equation using FFT...
<Set_Hamiltonian>  Hamiltonian matrix for VNA+dVH+Vxc...
<Band>  Solving the eigenvalue problem...
 KGrids1:  -0.37500  -0.12500   0.12500   0.37500 
 KGrids2:  -0.37500  -0.12500   0.12500   0.37500 
 KGrids3:  -0.37500  -0.12500   0.12500   0.37500 
<Band_DFT>  Eigen, time=0.331301
<Band_DFT>  DM, time=0.871261
    1    C  MulP   2.0515  2.0515 sum   4.1030
    2    H  MulP   0.4870  0.4870 sum   0.9740
    3    H  MulP   0.4870  0.4870 sum   0.9741
    4    H  MulP   0.4872  0.4872 sum   0.9745
    5    H  MulP   0.4872  0.4872 sum   0.9745
 Sum of MulP: up   =     4.00000 down          =     4.00000
              total=     8.00000 ideal(neutral)=     8.00000
<DFT>  Total Spin Moment (muB) =  0.000000000000
<DFT>  Mixing_weight= 0.368181811202
<DFT>  Uele   =   -3.329005983357  dUele     =   0.000457323348
<DFT>  NormRD =    0.000307910590  Criterion =   0.000001000000

******************* MD= 1  SCF= 4 *******************
<Poisson>  Poisson's equation using FFT...
<Set_Hamiltonian>  Hamiltonian matrix for VNA+dVH+Vxc...
<Band>  Solving the eigenvalue problem...
 KGrids1:  -0.37500  -0.12500   0.12500   0.37500 
 KGrids2:  -0.37500  -0.12500   0.12500   0.37500 
 KGrids3:  -0.37500  -0.12500   0.12500   0.37500 
