
The number of threads in each node for OpenMP parallelization is 1.


*******************************************************
*******************************************************
 Welcome to OpenMX   Ver. 3.8                           
 Copyright (C), 2002-2014, T. Ozaki                    
 OpenMX comes with ABSOLUTELY NO WARRANTY.             
 This is free software, and you are welcome to         
 redistribute it under the constitution of the GNU-GPL.
*******************************************************
*******************************************************



<Input_std>  Your input file was normally read.
<Input_std>  The system includes 4 species and 27 atoms.

*******************************************************
                     PAO and VPS                       
*******************************************************

<SetPara_DFT>  PAOs of species Fe were normally found.
<SetPara_DFT>  PAOs of species S were normally found.
<SetPara_DFT>  PAOs of species C were normally found.
<SetPara_DFT>  PAOs of species proj were normally found.
<SetPara_DFT>  VPSs of species Fe were normally found.
               Fe_PBE13S.vps is j-dependent.
               In case of scf.SpinOrbit.Coupling=off,
               j-dependent pseudo potentials are averaged by j-degeneracy,
               which corresponds to a scalar relativistic treatment.
<SetPara_DFT>  VPSs of species S were normally found.
               S_PBE13.vps is j-dependent.
               In case of scf.SpinOrbit.Coupling=off,
               j-dependent pseudo potentials are averaged by j-degeneracy,
               which corresponds to a scalar relativistic treatment.
<SetPara_DFT>  VPSs of species C were normally found.
               C_PBE13.vps is j-dependent.
               In case of scf.SpinOrbit.Coupling=off,
               j-dependent pseudo potentials are averaged by j-degeneracy,
               which corresponds to a scalar relativistic treatment.
<SetPara_DFT>  VPSs of species proj were normally found.
               S_PBE13.vps is j-dependent.
               In case of scf.SpinOrbit.Coupling=off,
               j-dependent pseudo potentials are averaged by j-degeneracy,
               which corresponds to a scalar relativistic treatment.

*******************************************************
     Fourier transform of PAO and projectors of VNL    
*******************************************************

<FT_PAO>          Fourier transform of pseudo atomic orbitals
<FT_NLP>          Fourier transform of non-local projectors
<FT_ProExpn_VNA>  Fourier transform of VNA separable projectors
<FT_VNA>          Fourier transform of VNA potentials
<FT_ProductPAO>   Fourier transform of product of PAOs

*******************************************************
  Allocation of atoms to proccesors at MD_iter=    1     
*******************************************************

 proc =   0  # of atoms=   1  estimated weight=         1.00000
 proc =   1  # of atoms=   1  estimated weight=         1.00000
 proc =   2  # of atoms=   1  estimated weight=         1.00000
 proc =   3  # of atoms=   1  estimated weight=         1.00000
 proc =   4  # of atoms=   1  estimated weight=         1.00000
 proc =   5  # of atoms=   1  estimated weight=         1.00000
 proc =   6  # of atoms=   1  estimated weight=         1.00000
 proc =   7  # of atoms=   1  estimated weight=         1.00000
 proc =   8  # of atoms=   1  estimated weight=         1.00000
 proc =   9  # of atoms=   1  estimated weight=         1.00000
 proc =  10  # of atoms=   1  estimated weight=         1.00000
 proc =  11  # of atoms=   1  estimated weight=         1.00000
 proc =  12  # of atoms=   1  estimated weight=         1.00000
 proc =  13  # of atoms=   1  estimated weight=         1.00000
 proc =  14  # of atoms=   1  estimated weight=         1.00000
 proc =  15  # of atoms=   1  estimated weight=         1.00000
 proc =  16  # of atoms=   1  estimated weight=         1.00000
 proc =  17  # of atoms=   1  estimated weight=         1.00000
 proc =  18  # of atoms=   1  estimated weight=         1.00000
 proc =  19  # of atoms=   1  estimated weight=         1.00000
 proc =  20  # of atoms=   1  estimated weight=         1.00000
 proc =  21  # of atoms=   1  estimated weight=         1.00000
 proc =  22  # of atoms=   1  estimated weight=         1.00000
 proc =  23  # of atoms=   1  estimated weight=         1.00000
 proc =  24  # of atoms=   1  estimated weight=         1.00000
 proc =  25  # of atoms=   1  estimated weight=         1.00000
 proc =  26  # of atoms=   1  estimated weight=         1.00000
 proc =  27  # of atoms=   0  estimated weight=         0.00000
 proc =  28  # of atoms=   0  estimated weight=         0.00000
 proc =  29  # of atoms=   0  estimated weight=         0.00000
 proc =  30  # of atoms=   0  estimated weight=         0.00000
 proc =  31  # of atoms=   0  estimated weight=         0.00000




*******************************************************
        Analysis of neighbors and setting of grids        
*******************************************************

TFNAN=     552   Average FNAN=  20.44444
TSNAN=       0   Average SNAN=   0.00000
<truncation> CpyCell= 1 ct_AN=   1 FNAN SNAN  20   0
<truncation> CpyCell= 1 ct_AN=   2 FNAN SNAN  20   0
<truncation> CpyCell= 1 ct_AN=   3 FNAN SNAN  20   0
<truncation> CpyCell= 1 ct_AN=   4 FNAN SNAN  21   0
<truncation> CpyCell= 1 ct_AN=   5 FNAN SNAN  21   0
<truncation> CpyCell= 1 ct_AN=   6 FNAN SNAN  21   0
<truncation> CpyCell= 1 ct_AN=   7 FNAN SNAN  21   0
<truncation> CpyCell= 1 ct_AN=   8 FNAN SNAN  21   0
<truncation> CpyCell= 1 ct_AN=   9 FNAN SNAN  21   0
<truncation> CpyCell= 1 ct_AN=  10 FNAN SNAN  21   0
<truncation> CpyCell= 1 ct_AN=  11 FNAN SNAN  21   0
<truncation> CpyCell= 1 ct_AN=  12 FNAN SNAN  21   0
<truncation> CpyCell= 1 ct_AN=  13 FNAN SNAN  21   0
<truncation> CpyCell= 1 ct_AN=  14 FNAN SNAN  21   0
<truncation> CpyCell= 1 ct_AN=  15 FNAN SNAN  21   0
<truncation> CpyCell= 1 ct_AN=  16 FNAN SNAN  20   0
<truncation> CpyCell= 1 ct_AN=  17 FNAN SNAN  20   0
<truncation> CpyCell= 1 ct_AN=  18 FNAN SNAN  20   0
<truncation> CpyCell= 1 ct_AN=  19 FNAN SNAN  20   0
<truncation> CpyCell= 1 ct_AN=  20 FNAN SNAN  20   0
     ..........
     ......

TFNAN=     552   Average FNAN=  20.44444
TSNAN=       0   Average SNAN=   0.00000
<truncation> CpyCell= 2 ct_AN=   1 FNAN SNAN  20   0
<truncation> CpyCell= 2 ct_AN=   2 FNAN SNAN  20   0
<truncation> CpyCell= 2 ct_AN=   3 FNAN SNAN  20   0
<truncation> CpyCell= 2 ct_AN=   4 FNAN SNAN  21   0
<truncation> CpyCell= 2 ct_AN=   5 FNAN SNAN  21   0
<truncation> CpyCell= 2 ct_AN=   6 FNAN SNAN  21   0
<truncation> CpyCell= 2 ct_AN=   7 FNAN SNAN  21   0
<truncation> CpyCell= 2 ct_AN=   8 FNAN SNAN  21   0
<truncation> CpyCell= 2 ct_AN=   9 FNAN SNAN  21   0
<truncation> CpyCell= 2 ct_AN=  10 FNAN SNAN  21   0
<truncation> CpyCell= 2 ct_AN=  11 FNAN SNAN  21   0
<truncation> CpyCell= 2 ct_AN=  12 FNAN SNAN  21   0
<truncation> CpyCell= 2 ct_AN=  13 FNAN SNAN  21   0
<truncation> CpyCell= 2 ct_AN=  14 FNAN SNAN  21   0
<truncation> CpyCell= 2 ct_AN=  15 FNAN SNAN  21   0
<truncation> CpyCell= 2 ct_AN=  16 FNAN SNAN  20   0
<truncation> CpyCell= 2 ct_AN=  17 FNAN SNAN  20   0
<truncation> CpyCell= 2 ct_AN=  18 FNAN SNAN  20   0
<truncation> CpyCell= 2 ct_AN=  19 FNAN SNAN  20   0
<truncation> CpyCell= 2 ct_AN=  20 FNAN SNAN  20   0
     ..........
     ......

TFNAN=     552   Average FNAN=  20.44444
TSNAN=       0   Average SNAN=   0.00000
<truncation> CpyCell= 2 ct_AN=   1 FNAN SNAN  20   0
<truncation> CpyCell= 2 ct_AN=   2 FNAN SNAN  20   0
<truncation> CpyCell= 2 ct_AN=   3 FNAN SNAN  20   0
<truncation> CpyCell= 2 ct_AN=   4 FNAN SNAN  21   0
<truncation> CpyCell= 2 ct_AN=   5 FNAN SNAN  21   0
<truncation> CpyCell= 2 ct_AN=   6 FNAN SNAN  21   0
<truncation> CpyCell= 2 ct_AN=   7 FNAN SNAN  21   0
<truncation> CpyCell= 2 ct_AN=   8 FNAN SNAN  21   0
<truncation> CpyCell= 2 ct_AN=   9 FNAN SNAN  21   0
<truncation> CpyCell= 2 ct_AN=  10 FNAN SNAN  21   0
<truncation> CpyCell= 2 ct_AN=  11 FNAN SNAN  21   0
<truncation> CpyCell= 2 ct_AN=  12 FNAN SNAN  21   0
<truncation> CpyCell= 2 ct_AN=  13 FNAN SNAN  21   0
<truncation> CpyCell= 2 ct_AN=  14 FNAN SNAN  21   0
<truncation> CpyCell= 2 ct_AN=  15 FNAN SNAN  21   0
<truncation> CpyCell= 2 ct_AN=  16 FNAN SNAN  20   0
<truncation> CpyCell= 2 ct_AN=  17 FNAN SNAN  20   0
<truncation> CpyCell= 2 ct_AN=  18 FNAN SNAN  20   0
<truncation> CpyCell= 2 ct_AN=  19 FNAN SNAN  20   0
<truncation> CpyCell= 2 ct_AN=  20 FNAN SNAN  20   0
     ..........
     ......

<Check_System> The system is slab.
lattice vectors (bohr)
A  = 27.969467923587,  0.000913884701,  0.000001357828
B  = -13.983942425346, 24.217609500602,  0.000003771730
C  = -0.000010096851, -0.000001365997, 28.285447588847
reciprocal lattice vectors (bohr^-1)
RA =  0.224640196266,  0.129713693291,  0.000000086452
RB = -0.000008477106,  0.259442071013,  0.000000012526
RC = -0.000000010783, -0.000000040822,  0.222134908329
Grid_Origin  0.000000000000  0.000000000000  0.000000000000
Cell_Volume =  19159.612705804320 (Bohr^3)
GridVol     =      0.002394501422 (Bohr^3)
Grid_Origin  0.000000000000  0.000000000000  0.000000000000
Cell_Volume =  19159.612705804320 (Bohr^3)
GridVol     =      0.002394501422 (Bohr^3)
<UCell_Box> Info. of cutoff energy and num. of grids
lattice vectors (bohr)
A  = 27.969467923587,  0.000913884701,  0.000001357828
B  = -13.983942425346, 24.217609500602,  0.000003771730
C  = -0.000010096851, -0.000001365997, 28.285447588847
reciprocal lattice vectors (bohr^-1)
RA =  0.224640196266,  0.129713693291,  0.000000086452
RB = -0.000008477106,  0.259442071013,  0.000000012526
RC = -0.000000010783, -0.000000040822,  0.222134908329
Required cutoff energy (Ryd) for 3D-grids = 600.0000
    Used cutoff energy (Ryd) for 3D-grids = 600.9063, 601.0968, 618.9701
Num. of grids of a-, b-, and c-axes = 189, 189, 224
Grid_Origin  0.000000000000  0.000000000000  0.000000000000
Cell_Volume =  19159.612705804320 (Bohr^3)
GridVol     =      0.002394501422 (Bohr^3)
Cell vectors (bohr) of the grid cell (gtv)
  gtv_a =  0.147986602770,  0.000004835369,  0.000000007184
  gtv_b = -0.073989113362,  0.128135500003,  0.000000019956
  gtv_c = -0.000000045075, -0.000000006098,  0.126274319593
  |gtv_a| =  0.147986602849
  |gtv_b| =  0.147963155066
  |gtv_c| =  0.126274319593
Num. of grids overlapping with atom    1 = 377930
Num. of grids overlapping with atom    2 = 377916
Num. of grids overlapping with atom    3 = 377918
Num. of grids overlapping with atom    4 = 600003
Num. of grids overlapping with atom    5 = 600003
Num. of grids overlapping with atom    6 = 600028
Num. of grids overlapping with atom    7 = 600026
Num. of grids overlapping with atom    8 = 600028
Num. of grids overlapping with atom    9 = 600028
Num. of grids overlapping with atom   10 = 600043
Num. of grids overlapping with atom   11 = 600043
Num. of grids overlapping with atom   12 = 600022
Num. of grids overlapping with atom   13 = 600022
Num. of grids overlapping with atom   14 = 600012
Num. of grids overlapping with atom   15 = 600012
Num. of grids overlapping with atom   16 = 377904
Num. of grids overlapping with atom   17 = 377904
Num. of grids overlapping with atom   18 = 377874
Num. of grids overlapping with atom   19 = 377874
Num. of grids overlapping with atom   20 = 377883
     ..........
     ......


*******************************************************
             SCF calculation at MD = 1                
*******************************************************

<MD= 1>  Calculation of the overlap matrix
<MD= 1>  Calculation of the nonlocal matrix
<MD= 1>  Calculation of the VNA projector matrix

******************* MD= 1  SCF= 1 *******************
<Restart>  Found restart files
<Poisson>  Poisson's equation using FFT...
<Band>  Solving the eigenvalue problem...
 KGrids1:  -0.44444  -0.33333  -0.22222  -0.11111   0.00000   0.11111   0.22222   0.33333   0.44445 
 KGrids2:  -0.44445  -0.33333  -0.22222  -0.11111  -0.00000   0.11111   0.22222   0.33333   0.44444 
 KGrids3:   0.00000 
<Band_DFT>  Eigen, time=0.819973
<Band_DFT>  DM, time=2.704527
    1   Fe  MulP   7.8579   5.6079 sum  13.4658 diff   2.2500
    2   Fe  MulP   7.8570   5.6082 sum  13.4652 diff   2.2488
    3   Fe  MulP   7.8573   5.6081 sum  13.4654 diff   2.2491
    4    S  MulP   3.1835   3.2254 sum   6.4089 diff  -0.0419
    5    S  MulP   3.1835   3.2254 sum   6.4089 diff  -0.0419
    6    S  MulP   3.1835   3.2251 sum   6.4085 diff  -0.0416
    7    S  MulP   3.1835   3.2251 sum   6.4085 diff  -0.0416
    8    S  MulP   3.1833   3.2252 sum   6.4084 diff  -0.0419
    9    S  MulP   3.1833   3.2252 sum   6.4084 diff  -0.0419
   10    S  MulP   3.1834   3.2254 sum   6.4088 diff  -0.0420
   11    S  MulP   3.1834   3.2254 sum   6.4088 diff  -0.0420
   12    S  MulP   3.1835   3.2250 sum   6.4085 diff  -0.0415
   13    S  MulP   3.1835   3.2250 sum   6.4085 diff  -0.0415
   14    S  MulP   3.1833   3.2252 sum   6.4085 diff  -0.0419
   15    S  MulP   3.1833   3.2252 sum   6.4085 diff  -0.0419
   16    C  MulP   1.8523   1.8728 sum   3.7251 diff  -0.0205
   17    C  MulP   1.8523   1.8728 sum   3.7251 diff  -0.0205
   18    C  MulP   1.8523   1.8728 sum   3.7251 diff  -0.0205
   19    C  MulP   1.8523   1.8728 sum   3.7251 diff  -0.0205
   20    C  MulP   1.8522   1.8727 sum   3.7249 diff  -0.0205
     ..........
     ......

 Sum of MulP: up   =    84.00014 down          =    77.99986
              total=   162.00000 ideal(neutral)=   162.00000
<DFT>  Total Spin Moment (muB) =  6.000280479898
<DFT>  Mixing_weight= 0.010000000000
<DFT>  Uele   = -101.099490170492  dUele     =   1.000000000000
<DFT>  NormRD =    1.000000000000  Criterion =   0.000000010000

******************* MD= 1  SCF= 2 *******************
<Poisson>  Poisson's equation using FFT...
<Set_Hamiltonian>  Hamiltonian matrix for VNA+dVH+Vxc...
<Band>  Solving the eigenvalue problem...
 KGrids1:  -0.44444  -0.33333  -0.22222  -0.11111   0.00000   0.11111   0.22222   0.33333   0.44445 
 KGrids2:  -0.44445  -0.33333  -0.22222  -0.11111  -0.00000   0.11111   0.22222   0.33333   0.44444 
 KGrids3:   0.00000 
<Band_DFT>  Eigen, time=0.866711
<Band_DFT>  DM, time=2.674072
    1   Fe  MulP   7.8579   5.6079 sum  13.4658 diff   2.2500
    2   Fe  MulP   7.8570   5.6082 sum  13.4652 diff   2.2488
    3   Fe  MulP   7.8573   5.6081 sum  13.4654 diff   2.2491
    4    S  MulP   3.1835   3.2254 sum   6.4089 diff  -0.0419
    5    S  MulP   3.1835   3.2254 sum   6.4089 diff  -0.0419
    6    S  MulP   3.1835   3.2251 sum   6.4085 diff  -0.0416
    7    S  MulP   3.1835   3.2251 sum   6.4085 diff  -0.0416
    8    S  MulP   3.1833   3.2252 sum   6.4084 diff  -0.0419
    9    S  MulP   3.1833   3.2252 sum   6.4084 diff  -0.0419
   10    S  MulP   3.1834   3.2254 sum   6.4088 diff  -0.0420
   11    S  MulP   3.1834   3.2254 sum   6.4088 diff  -0.0420
   12    S  MulP   3.1835   3.2250 sum   6.4085 diff  -0.0415
   13    S  MulP   3.1835   3.2250 sum   6.4085 diff  -0.0415
   14    S  MulP   3.1833   3.2252 sum   6.4085 diff  -0.0419
   15    S  MulP   3.1833   3.2252 sum   6.4085 diff  -0.0419
   16    C  MulP   1.8523   1.8728 sum   3.7251 diff  -0.0205
   17    C  MulP   1.8523   1.8728 sum   3.7251 diff  -0.0205
   18    C  MulP   1.8523   1.8728 sum   3.7251 diff  -0.0205
   19    C  MulP   1.8523   1.8728 sum   3.7251 diff  -0.0205
   20    C  MulP   1.8522   1.8727 sum   3.7249 diff  -0.0205
     ..........
     ......

 Sum of MulP: up   =    84.00014 down          =    77.99986
              total=   162.00000 ideal(neutral)=   162.00000
<DFT>  Total Spin Moment (muB) =  6.000280479897
<DFT>  Mixing_weight= 0.010000000000
<DFT>  Uele   = -101.099490169824  dUele     =   0.000000000668
<DFT>  NormRD =    0.000000019175  Criterion =   0.000000010000
Band_DFT_kpath start
kpath
1 ( 0.000000000000000  0.000000000000000  0.000000000000000)->( 0.333333000000000  0.333333000000000  0.000000000000000)
2 ( 0.333333000000000  0.333333000000000  0.000000000000000)->( 0.000000000000000  0.500000000000000  0.000000000000000)
3 ( 0.000000000000000  0.500000000000000  0.000000000000000)->( 0.000000000000000  0.000000000000000  0.000000000000000)

<Band_DFT_Dosout>
 KGrids1: 0.000001 0.047620 0.095239 0.142858 0.190477 0.238096 0.285715 0.333334 0.380953 0.428572 0.476191 0.523811 0.571430 0.619049 0.666668 0.714287 0.761906 0.809525 0.857144 0.904763 0.952382 
 KGrids2: -0.000001 0.047618 0.095237 0.142856 0.190475 0.238094 0.285713 0.333332 0.380951 0.428570 0.476189 0.523809 0.571428 0.619047 0.666666 0.714285 0.761904 0.809523 0.857142 0.904761 0.952380 
 KGrids3: 0.000002 
 iemin and iemax= 29 108
 write eigenvalues
 write eigenvectors
<MD= 1>  Force calculation
  Force calculation #1
  Force calculation #2
  Force calculation #3
  Force calculation #4
  Force calculation #5
  Force calculation for LDA_U with dual
<MD= 1>  Total Energy
  Force calculation #6
  Force calculation #7

*******************************************************
                  Dipole moment (Debye)                 
*******************************************************

 Absolute D      461.31008117

                      Dx                Dy                Dz
 Total           -230.68757044     -399.48746643       -0.00034274
 Core            2630.52594196     4555.24549408     5823.45328183
 Electron       -2861.21351240    -4954.73296051    -5823.45362456
 Back ground       -0.00000000       -0.00000000       -0.00000000

*******************************************************
                Total Energy (Hartree) at MD = 1        
*******************************************************

  Uele  =    -101.099490169824

  Ukin  =     255.709641380880
  UH0   =   -1784.814062487318
  UH1   =       0.351874788935
  Una   =    -217.890424914082
  Unl   =     -26.376159468777
  Uxc0  =     -50.670234633046
  Uxc1  =     -45.893176182531
  Ucore =    1404.338901951432
  Uhub  =       0.000000000000
  Ucs   =       0.000000000000
  Uzs   =       0.000000000000
  Uzo   =       0.000000000000
  Uef   =       0.000000000000
  UvdW  =       0.000000000000
  Utot  =    -465.243639564508

  Note:

  Utot = Ukin+UH0+UH1+Una+Unl+Uxc0+Uxc1+Ucore+Uhub+Ucs+Uzs+Uzo+Uef+UvdW

  Uele:   band energy
  Ukin:   kinetic energy
  UH0:    electric part of screened Coulomb energy
  UH1:    difference electron-electron Coulomb energy
  Una:    neutral atom potential energy
  Unl:    non-local potential energy
  Uxc0:   exchange-correlation energy for alpha spin
  Uxc1:   exchange-correlation energy for beta spin
  Ucore:  core-core Coulomb energy
  Uhub:   LDA+U energy
  Ucs:    constraint energy for spin orientation
  Uzs:    Zeeman term for spin magnetic moment
  Uzo:    Zeeman term for orbital magnetic moment
  Uef:    electric energy by electric field
  UvdW:   semi-empirical vdW energy 

  (see also PRB 72, 045121(2005) for the energy contributions)


*******************************************************
           Computational times (s) at MD = 1            
*******************************************************

  DFT in total      =  145.70638

  Set_OLP_Kin       =    1.54418
  Set_Nonlocal      =    1.47874
  Set_ProExpn_VNA   =    3.15823
  Set_Hamiltonian   =    3.59942
  Poisson           =    0.54338
  diagonalization   =   10.24345
  Mixing_DM         =    0.00163
  Force             =    7.04080
  Total_Energy      =    1.19010
  Set_Aden_Grid     =    1.24283
  Set_Orbitals_Grid =    1.51372
  Set_Density_Grid  =    4.78212
  RestartFileDFT    =    1.51514
  Mulliken_Charge   =    0.03821
  FFT(2D)_Density   =    0.00000

*******************************************************
             MD or geometry opt. at MD = 1              
*******************************************************


outputting data on grids to files...

Save the scfout file (./FeCS-gga.scfout)

***********************************************************
***********************************************************
               Computational Time (second)                 
***********************************************************
***********************************************************

                               Min_ID   Min_Time       Max_ID   Max_Time
   Total Computational Time =    31      247.486          0      252.896
   readfile                 =    17        9.177          7        9.183
   truncation               =     0        0.000          0        0.000
   MD_pac                   =     0        0.004         15        0.007
   OutData                  =    15       77.263          0       86.973
   DFT                      =    14      145.308         31      146.207

*** In DFT ***

   Set_OLP_Kin              =    31        0.487         14        1.823
   Set_Nonlocal             =    14        1.192         31        2.538
   Set_ProExpn_VNA          =    27        2.695         10        3.780
   Set_Hamiltonian          =    21        3.599         30        3.599
   Poisson                  =    30        0.543          5        0.543
   Diagonalization          =     0       10.243          6       10.244
   Mixing_DM                =     1        0.002         22        0.002
   Force                    =     4        7.041         17        7.041
   Total_Energy             =     0        1.190          4        1.190
   Set_Aden_Grid            =     8        0.696         31        1.702
   Set_Orbitals_Grid        =    28        0.000         16        1.989
   Set_Density_Grid         =     3        4.559         16        4.971
   RestartFileDFT           =     0        1.515         31        3.689
   Mulliken_Charge          =    17        0.038         14        0.038
   FFT(2D)_Density          =     0        0.000          0        0.000
   Others                   =    10      106.431         30      109.764

The calculation was normally finished.
